version 2
run OneHot-0-20210107-17:41:39-65
attr configname OneHot
attr datetime 20210107-17:41:39
attr experiment OneHot
attr inifile is1_1l_8n.ini
attr iterationvars ""
attr iterationvars2 $repetition=0
attr measurement ""
attr network ib_model.examples.is1_1l_8n.is1_1l_8n
attr processid 65
attr repetition 0
attr replication #0
attr resultdir results
attr runnumber 0
attr seedset 0

vector 0  is1_1l_8n.H_1_U1.app  Dst-Sequence-Index  ETV
vector 8  is1_1l_8n.H_2_U1.app  Dst-Sequence-Index  ETV
vector 16  is1_1l_8n.H_3_U1.app  Dst-Sequence-Index  ETV
vector 24  is1_1l_8n.H_4_U1.app  Dst-Sequence-Index  ETV
vector 32  is1_1l_8n.H_5_U1.app  Dst-Sequence-Index  ETV
vector 40  is1_1l_8n.H_6_U1.app  Dst-Sequence-Index  ETV
vector 48  is1_1l_8n.H_7_U1.app  Dst-Sequence-Index  ETV
0	1	0	1
0	318911	0.000214878076	2
0	664523	0.000458122844	3
0	1009317	0.000700988076	4
0	1355047	0.000944444076	5
0	1699486	0.001187132076	6
0	2044165	0.001430110076	7
0	2388675	0.001673020076	8
0	2734032	0.001916510076	9
0	3077393	0.002158652076	0
0	3422935	0.002402364076	1
0	3767481	0.002645342076	2
0	4112072	0.002888252076	3
0	4456149	0.003130796844	4
0	4801202	0.003374140076	5
0	5144291	0.003616172844	6
0	5489585	0.003859550076	7
0	5834515	0.004102716076	8
0	6179031	0.004345660076	9
0	6523607	0.004588638076	0
0	6868890	0.004832060076	1
0	7212649	0.005074492076	2
0	7557436	0.005317470076	3
0	7901596	0.005560158076	4
0	8247158	0.005803870076	5
0	8589757	0.006045534076	6
0	8933856	0.006288188076	7
0	9280622	0.006532702076	8
0	9625438	0.006775868076	9
0	9968992	0.007018078076	0
0	10313215	0.007260766076	1
0	10658475	0.007504222076	2
0	11004138	0.007747934076	3
0	11347761	0.007990332076	4
0	11691835	0.008233020076	5
0	12035180	0.008475196076	6
0	12381675	0.008719454076	7
0	12725946	0.008962142076	8
0	13070067	0.009204830076	9
0	13414374	0.009447518076	0
0	13760289	0.009691452076	1
0	14105605	0.009934942076	2
0	14447773	0.010176350076	3
0	14791813	0.010419116844	4
0	15136875	0.010662460076	5
0	15483171	0.010906540844	6
0	15825579	0.011148126076	7
0	16170898	0.011391660844	8
0	16514014	0.011633468076	9
0	16860855	0.011878060844	0
0	17203747	0.012119868076	1
0	17549037	0.012363358076	2
0	17892826	0.012605790076	3
0	18238445	0.012849502076	4
0	18581634	0.013091644076	5
0	18925995	0.013334588076	6
0	19271202	0.013578044076	7
0	19615879	0.013821100844	8
0	19960483	0.014064188076	9
0	20303513	0.014306108076	0
0	20648748	0.014549564076	1
0	20993763	0.014792798076	2
0	21338617	0.015035964076	3
0	21682594	0.015278396076	4
0	22026790	0.015521084076	5
0	22372433	0.015764796076	6
0	22715226	0.016006460076	7
0	23061344	0.016250462076	8
0	23406074	0.016493628076	9
0	23749754	0.016735916844	0
0	24093597	0.016978526076	1
0	24439251	0.017222316844	2
0	24782780	0.017464636076	3
0	25128669	0.017708382076	4
0	25471655	0.017950268076	5
0	25817419	0.018193980076	6
0	26162420	0.018437180076	7
0	26507465	0.018680380076	8
0	26851138	0.018922590076	9
0	27195792	0.019165500076	0
0	27540696	0.019408700076	1
0	27887536	0.019653180076	2
0	28229928	0.019894588076	3
8	3	0	1
8	317337	0.000213820076	2
8	660786	0.000455484076	3
8	1004239	0.000697404076	4
8	1347408	0.000939068076	5
8	1690752	0.001180988076	6
8	2032824	0.001422140076	7
8	2375576	0.001663804076	8
8	2718361	0.001905468076	9
8	3061082	0.002147132076	0
8	3402556	0.002388028076	1
8	3745625	0.002629948076	2
8	4088025	0.002871356076	3
8	4430855	0.003113020076	4
8	4773215	0.003354428076	5
8	5115463	0.003595836076	6
8	5458230	0.003837500076	7
8	5800737	0.004078908076	8
8	6143145	0.004320316076	9
8	6485753	0.004561980076	0
8	6828219	0.004803388076	1
8	7170499	0.005044796076	2
8	7514158	0.005286972076	3
8	7856452	0.005528380076	4
8	8198704	0.005769788076	5
8	8541343	0.006011452076	6
8	8883349	0.006252604076	7
8	9225728	0.006494012076	8
8	9568446	0.006735676076	9
8	9911156	0.006977340076	0
8	10253959	0.007219004076	1
8	10596294	0.007460412076	2
8	10938319	0.007701564076	3
8	11280957	0.007943228076	4
8	11623609	0.008184892076	5
8	11966189	0.008426556076	6
8	12308554	0.008667964076	7
8	12650689	0.008909116076	8
8	12993420	0.009150780076	9
8	13335905	0.009392188076	0
8	13678575	0.009633852076	1
8	14021267	0.009875516076	2
8	14363085	0.010116668076	3
8	14705972	0.010358588076	4
8	15047993	0.010599740076	5
8	15390038	0.010840892076	6
8	15732653	0.011082556076	7
8	16075271	0.011324220076	8
8	16418076	0.011565884076	9
8	16760834	0.011807548076	0
8	17103573	0.012049212076	1
8	17445835	0.012290620076	2
8	17787445	0.012531516076	3
8	18130120	0.012773180076	4
8	18472758	0.013014844076	5
8	18816093	0.013257020076	6
8	19158702	0.013498684076	7
8	19500955	0.013740092076	8
8	19842524	0.013980988076	9
8	20184921	0.014222396076	0
8	20527526	0.014464060076	1
8	20870280	0.014705724076	2
8	21212977	0.014947388076	3
8	21556214	0.015189308076	4
8	21898294	0.015430460076	5
8	22241004	0.015672124076	6
8	22583400	0.015913532076	7
8	22925592	0.016154684076	8
8	23268141	0.016396348076	9
8	23611162	0.016638268076	0
8	23954269	0.016880188076	1
8	24296027	0.017121340076	2
8	24637980	0.017362492076	3
8	24980423	0.017603900076	4
8	25323528	0.017845820076	5
8	25666001	0.018087228076	6
8	26008863	0.018328892076	7
8	26352011	0.018570812076	8
8	26694526	0.018812220076	9
8	27037048	0.019053628076	0
8	27379190	0.019294780076	1
8	27721563	0.019536188076	2
8	28064381	0.019777852076	3
16	5	0	1
16	317703	0.000214076076	2
16	661156	0.000455740076	3
16	1004582	0.000697660076	4
16	1348095	0.000939580076	5
16	1691177	0.001181244076	6
16	2033504	0.001422652076	7
16	2376661	0.001664572076	8
16	2719023	0.001905980076	9
16	3061083	0.002147132076	0
16	3403672	0.002388796076	1
16	3746679	0.002630716076	2
16	4089864	0.002872636076	3
16	4432314	0.003114044076	4
16	4775429	0.003355964076	5
16	5117255	0.003597116076	6
16	5459353	0.003838268076	7
16	5802180	0.004079932076	8
16	6144963	0.004321596076	9
16	6487232	0.004563004076	0
16	6830068	0.004804668076	1
16	7173043	0.005046588076	2
16	7515242	0.005287740076	3
16	7857479	0.005529148076	4
16	8200162	0.005770812076	5
16	8542819	0.006012476076	6
16	8885580	0.006254140076	7
16	9227840	0.006495548076	8
16	9570581	0.006737212076	9
16	9913299	0.006978876076	0
16	10255408	0.007220028076	1
16	10597737	0.007461436076	2
16	10940163	0.007702844076	3
16	11282836	0.007944508076	4
16	11625462	0.008186172076	5
16	11968747	0.008428348076	6
16	12311113	0.008669756076	7
16	12653255	0.008910908076	8
16	12995196	0.009152060076	9
16	13337686	0.009393468076	0
16	13681481	0.009635900076	1
16	14024193	0.009877564076	2
16	14366786	0.010119228076	3
16	14708466	0.010360380076	4
16	15050552	0.010601532076	5
16	15393625	0.010843452076	6
16	15737011	0.011085628076	7
16	16079280	0.011327036076	8
16	16422044	0.011568700076	9
16	16763739	0.011809596076	0
16	17106493	0.012051260076	1
16	17449453	0.012293180076	2
16	17792126	0.012534844076	3
16	18134847	0.012776508076	4
16	18477455	0.013018172076	5
16	18818575	0.013258812076	6
16	19161611	0.013500732076	7
16	19504580	0.013742652076	8
16	19846868	0.013984060076	9
16	20189249	0.014225468076	0
16	20531130	0.014466620076	1
16	20873880	0.014708284076	2
16	21217307	0.014950460076	3
16	21559485	0.015191612076	4
16	21902258	0.015433276076	5
16	22244268	0.015674428076	6
16	22587094	0.015916092076	7
16	22930612	0.016158268076	8
16	23273626	0.016400188076	9
16	23615920	0.016641596076	0
16	23957532	0.016882492076	1
16	24299292	0.017123644076	2
16	24642354	0.017365564076	3
16	24985796	0.017607740076	4
16	25328582	0.017849404076	5
16	25671368	0.018091068076	6
16	26014247	0.018332732076	7
16	26356022	0.018573628076	8
16	26698544	0.018815036076	9
16	27042116	0.019057212076	0
16	27384685	0.019298620076	1
16	27727708	0.019540540076	2
16	28070493	0.019782204076	3
24	7	0	1
24	317704	0.000214076076	2
24	661838	0.000456252076	3
24	1004930	0.000697916076	4
24	1349204	0.000940348076	5
24	1692228	0.001182012076	6
24	2034968	0.001423676076	7
24	2377368	0.001665084076	8
24	2720142	0.001906748076	9
24	3063227	0.002148668076	0
24	3404781	0.002389564076	1
24	3748524	0.002631996076	2
24	4091351	0.002873660076	3
24	4433417	0.003114812076	4
24	4776139	0.003356476076	5
24	5118023	0.003597628076	6
24	5461882	0.003840060076	7
24	5805091	0.004081980076	8
24	6147518	0.004323388076	9
24	6489366	0.004564540076	0
24	6832220	0.004806204076	1
24	7175265	0.005048124076	2
24	7518146	0.005289788076	3
24	7861831	0.005532220076	4
24	8204161	0.005773628076	5
24	8546158	0.006014780076	6
24	8888027	0.006255932076	7
24	9230735	0.006497596076	8
24	9574569	0.006740028076	9
24	9917335	0.006981692076	0
24	10259409	0.007222844076	1
24	10602433	0.007464764076	2
24	10945215	0.007706428076	3
24	11287877	0.007948092076	4
24	11630850	0.008190012076	5
24	11973129	0.008431420076	6
24	12315482	0.008672828076	7
24	12658294	0.008914492076	8
24	13000996	0.009156156076	9
24	13343495	0.009397564076	0
24	13686540	0.009639484076	1
24	14029588	0.009881404076	2
24	14371251	0.010122378844	3
24	14713936	0.010364220076	4
24	15057437	0.010606396076	5
24	15399436	0.010847548076	6
24	15742043	0.011089212076	7
24	16084694	0.011330876076	8
24	16427445	0.011572540076	9
24	16770228	0.011814204076	0
24	17112614	0.012055612076	1
24	17455604	0.012297532076	2
24	17798360	0.012539196076	3
24	18140334	0.012780348076	4
24	18482931	0.013022012076	5
24	18825824	0.013263932076	6
24	19168128	0.013505340076	7
24	19510722	0.013747004076	8
24	19853018	0.013988412076	9
24	20196077	0.014230332076	0
24	20538727	0.014471996076	1
24	20881144	0.014713404076	2
24	21223861	0.014955068076	3
24	21566065	0.015196220076	4
24	21909503	0.015438396076	5
24	22252228	0.015680060076	6
24	22594978	0.015921724076	7
24	22937887	0.016163388076	8
24	23280123	0.016404796076	9
24	23623550	0.016646972076	0
24	23965131	0.016887868076	1
24	24308027	0.017129788076	2
24	24651086	0.017371708076	3
24	24993489	0.017613116076	4
24	25335494	0.017854268076	5
24	25679067	0.018096444076	6
24	26022274	0.018338364076	7
24	26364346	0.018579516076	8
24	26706856	0.018820924076	9
24	27049712	0.019062588076	0
24	27392586	0.019304252076	1
24	27736412	0.019546684076	2
24	28078883	0.019788092076	3
32	9	0	1
32	318387	0.000214588076	2
32	662256	0.000456508076	3
32	1005337	0.000698172076	4
32	1349973	0.000940860076	5
32	1693347	0.001182780076	6
32	2036080	0.001424444076	7
32	2379161	0.001666364076	8
32	2721594	0.001907772076	9
32	3065076	0.002149948076	0
32	3408024	0.002391868076	1
32	3751430	0.002634044076	2
32	4094592	0.002875964076	3
32	4438118	0.003118140076	4
32	4779826	0.003359036076	5
32	5123414	0.003601468076	6
32	5465831	0.003842876076	7
32	5810526	0.004085820076	8
32	6154012	0.004327996076	9
32	6495925	0.004569148076	0
32	6838371	0.004810556076	1
32	7181455	0.005052476076	2
32	7525577	0.005294986844	3
32	7868412	0.005536828076	4
32	8211429	0.005778748076	5
32	8553408	0.006019900076	6
32	8897192	0.006262332076	7
32	9239867	0.006503996076	8
32	9582998	0.006745916076	9
32	9925364	0.006987324076	0
32	10269142	0.007229756076	1
32	10611871	0.007471420076	2
32	10954667	0.007713084076	3
32	11298384	0.007955516076	4
32	11641434	0.008197436076	5
32	11985070	0.008439868076	6
32	12327409	0.008681276076	7
32	12670666	0.008923196076	8
32	13012600	0.009164348076	9
32	13355793	0.009406268076	0
32	13701455	0.009649980076	1
32	14042727	0.009890698844	2
32	14384526	0.010131772076	3
32	14727325	0.010373692076	4
32	15070501	0.010615612076	5
32	15415793	0.010859068076	6
32	15759141	0.011101244076	7
32	16099959	0.011341628076	8
32	16442087	0.011582858844	9
32	16785149	0.011824700076	0
32	17131818	0.012069180076	1
32	17474482	0.012310844076	2
32	17815950	0.012551562844	3
32	18157750	0.012792636076	4
32	18501115	0.013034812076	5
32	18847270	0.013279036076	6
32	19189208	0.013520188076	7
32	19531817	0.013761852076	8
32	19873345	0.014002748076	9
32	20215385	0.014243900076	0
32	20561286	0.014487868076	1
32	20905047	0.014730300076	2
32	21247112	0.014971452076	3
32	21589261	0.015212604076	4
32	21931739	0.015454012076	5
32	22275891	0.015696700076	6
32	22618649	0.015938364076	7
32	22963675	0.016181564076	8
32	23305221	0.016422460076	9
32	23646829	0.016663356076	0
32	23990141	0.016905532076	1
32	24334599	0.017148476076	2
32	24677576	0.017390396076	3
32	25019966	0.017631804076	4
32	25362382	0.017873212076	5
32	25706343	0.018115722844	6
32	26048766	0.018357052076	7
32	26392350	0.018599228076	8
32	26735909	0.018841404076	9
32	27078770	0.019083068076	0
32	27421397	0.019324554844	1
32	27764755	0.019566652076	2
32	28108279	0.019808828076	3
40	11	0	1
40	318822	0.000214844076	2
40	663717	0.000457532076	3
40	1007151	0.000699452076	4
40	1351422	0.000941884076	5
40	1696238	0.001184828076	6
40	2038621	0.001426236076	7
40	2383937	0.001669692076	8
40	2727387	0.001911868076	9
40	3070483	0.002153788076	0
40	3413149	0.002395452076	1
40	3755945	0.002637194844	2
40	4100753	0.002880316076	3
40	4444721	0.003122748076	4
40	4788518	0.003365180076	5
40	5131068	0.003606844076	6
40	5473533	0.003848252076	7
40	5818494	0.004091452076	8
40	6163445	0.004334652076	9
40	6506100	0.004576316076	0
40	6849980	0.004818748076	1
40	7193427	0.005060924076	2
40	7535962	0.005302332076	3
40	7881528	0.005546044076	4
40	8225255	0.005788476076	5
40	8567900	0.006030140076	6
40	8911299	0.006272316076	7
40	9253654	0.006513724076	8
40	9600410	0.006758204076	9
40	9943813	0.007000380076	0
40	10285638	0.007241354844	1
40	10629321	0.007483708076	2
40	10971719	0.007725116076	3
40	11318023	0.007969340076	4
40	11661733	0.008211772076	5
40	12004308	0.008453436076	6
40	12346718	0.008694844076	7
40	12689905	0.008936764076	8
40	13035494	0.009180476076	9
40	13379437	0.009422908076	0
40	13722195	0.009664572076	1
40	14064827	0.009906236076	2
40	14407035	0.010147644076	3
40	14753877	0.010392380076	4
40	15098089	0.010635068076	5
40	15440115	0.010876220076	6
40	15781248	0.011116860076	7
40	16125728	0.011359804076	8
40	16471514	0.011603516076	9
40	16815602	0.011846204076	0
40	17157627	0.012087356076	1
40	17498858	0.012327996076	2
40	17842946	0.012570684076	3
40	18188974	0.012814652076	4
40	18533682	0.013057852076	5
40	18875354	0.013298826844	6
40	19216795	0.013539644076	7
40	19560866	0.013782332076	8
40	19905287	0.014025276076	9
40	20250918	0.014268988076	0
40	20593894	0.014510908076	1
40	20935553	0.014751804076	2
40	21278725	0.014993724076	3
40	21623738	0.015236924076	4
40	21967998	0.015479612076	5
40	22312556	0.015722556076	6
40	22654234	0.015963452076	7
40	22997390	0.016205372076	8
40	23340751	0.016447548076	9
40	23684879	0.016690236076	0
40	24029293	0.016933180076	1
40	24372316	0.017175100076	2
40	24715996	0.017417532076	3
40	25058834	0.017659196076	4
40	25402651	0.017901628076	5
40	25746551	0.018144060076	6
40	26090184	0.018386236076	7
40	26434800	0.018629180076	8
40	26777014	0.018870332076	9
40	27121657	0.019113276076	0
40	27464518	0.019354940076	1
40	27807931	0.019597116076	2
40	28152193	0.019839804076	3
48	13	0	1
48	155708	0.000100059076	2
48	297793	0.000200118152	3
48	440114	0.000300177228	4
48	582348	0.000400236304	5
48	724441	0.00050029538	6
48	866542	0.000600354456	7
48	1008445	0.000700413532	8
48	1150568	0.000800472608	9
48	1292679	0.000900531684	10
